# vtk DataFile Version 4.2
File created by MooNMD, Computational Time : 0.000000000, Date & Time: Mon Jun 26 10:42:05 2023

ASCII
DATASET UNSTRUCTURED_GRID
POINTS 1089 float
0.406250000 0.781250000 0.000000000
0.406250000 0.812500000 0.000000000
0.406250000 0.843750000 0.000000000
0.437500000 0.843750000 0.000000000
0.468750000 0.843750000 0.000000000
0.437500000 0.781250000 0.000000000
0.468750000 0.812500000 0.000000000
0.468750000 0.781250000 0.000000000
0.281250000 0.843750000 0.000000000
0.375000000 0.843750000 0.000000000
0.312500000 0.843750000 0.000000000
0.343750000 0.843750000 0.000000000
0.343750000 0.812500000 0.000000000
0.375000000 0.781250000 0.000000000
0.343750000 0.781250000 0.000000000
0.281250000 0.812500000 0.000000000
0.312500000 0.781250000 0.000000000
0.281250000 0.781250000 0.000000000
0.343750000 1.000000000 0.000000000
0.343750000 0.968750000 0.000000000
0.343750000 0.875000000 0.000000000
0.343750000 0.937500000 0.000000000
0.343750000 0.906250000 0.000000000
0.312500000 0.906250000 0.000000000
0.281250000 0.875000000 0.000000000
0.281250000 0.906250000 0.000000000
0.281250000 1.000000000 0.000000000
0.312500000 0.968750000 0.000000000
0.281250000 0.937500000 0.000000000
0.281250000 0.968750000 0.000000000
0.468750000 0.875000000 0.000000000
0.468750000 0.906250000 0.000000000
0.375000000 0.906250000 0.000000000
0.437500000 0.906250000 0.000000000
0.406250000 0.875000000 0.000000000
0.406250000 0.906250000 0.000000000
0.406250000 1.000000000 0.000000000
0.406250000 0.937500000 0.000000000
0.375000000 0.968750000 0.000000000
0.406250000 0.968750000 0.000000000
0.468750000 0.937500000 0.000000000
0.437500000 0.968750000 0.000000000
0.468750000 1.000000000 0.000000000
0.468750000 0.968750000 0.000000000
0.281250000 0.593750000 0.000000000
0.312500000 0.593750000 0.000000000
0.343750000 0.593750000 0.000000000
0.343750000 0.562500000 0.000000000
0.343750000 0.531250000 0.000000000
0.281250000 0.562500000 0.000000000
0.312500000 0.531250000 0.000000000
0.281250000 0.531250000 0.000000000
0.343750000 0.750000000 0.000000000
0.343750000 0.718750000 0.000000000
0.343750000 0.625000000 0.000000000
0.343750000 0.687500000 0.000000000
0.343750000 0.656250000 0.000000000
0.312500000 0.656250000 0.000000000
0.281250000 0.625000000 0.000000000
0.281250000 0.656250000 0.000000000
0.281250000 0.750000000 0.000000000
0.312500000 0.718750000 0.000000000
0.281250000 0.687500000 0.000000000
0.281250000 0.718750000 0.000000000
0.468750000 0.656250000 0.000000000
0.375000000 0.656250000 0.000000000
0.437500000 0.656250000 0.000000000
0.406250000 0.656250000 0.000000000
0.406250000 0.750000000 0.000000000
0.406250000 0.687500000 0.000000000
0.375000000 0.718750000 0.000000000
0.406250000 0.718750000 0.000000000
0.468750000 0.687500000 0.000000000
0.437500000 0.718750000 0.000000000
0.468750000 0.750000000 0.000000000
0.468750000 0.718750000 0.000000000
0.375000000 0.531250000 0.000000000
0.406250000 0.531250000 0.000000000
0.406250000 0.625000000 0.000000000
0.406250000 0.562500000 0.000000000
0.375000000 0.593750000 0.000000000
0.406250000 0.593750000 0.000000000
0.437500000 0.593750000 0.000000000
0.468750000 0.625000000 0.000000000
0.468750000 0.593750000 0.000000000
0.437500000 0.531250000 0.000000000
0.468750000 0.562500000 0.000000000
0.468750000 0.531250000 0.000000000
0.093750000 0.718750000 0.000000000
0.093750000 0.687500000 0.000000000
0.093750000 0.656250000 0.000000000
0.000000000 0.656250000 0.000000000
0.062500000 0.656250000 0.000000000
0.031250000 0.656250000 0.000000000
0.062500000 0.718750000 0.000000000
0.031250000 0.687500000 0.000000000
0.000000000 0.718750000 0.000000000
0.031250000 0.718750000 0.000000000
0.250000000 0.656250000 0.000000000
0.218750000 0.656250000 0.000000000
0.125000000 0.656250000 0.000000000
0.187500000 0.656250000 0.000000000
0.156250000 0.656250000 0.000000000
0.156250000 0.687500000 0.000000000
0.125000000 0.718750000 0.000000000
0.156250000 0.718750000 0.000000000
0.250000000 0.718750000 0.000000000
0.218750000 0.687500000 0.000000000
0.187500000 0.718750000 0.000000000
0.218750000 0.718750000 0.000000000
0.156250000 0.531250000 0.000000000
0.156250000 0.625000000 0.000000000
0.156250000 0.562500000 0.000000000
0.156250000 0.593750000 0.000000000
0.250000000 0.593750000 0.000000000
0.187500000 0.593750000 0.000000000
0.218750000 0.625000000 0.000000000
0.218750000 0.593750000 0.000000000
0.187500000 0.531250000 0.000000000
0.218750000 0.562500000 0.000000000
0.250000000 0.531250000 0.000000000
0.218750000 0.531250000 0.000000000
0.031250000 0.625000000 0.000000000
0.000000000 0.593750000 0.000000000
0.031250000 0.593750000 0.000000000
0.125000000 0.593750000 0.000000000
0.062500000 0.593750000 0.000000000
0.093750000 0.625000000 0.000000000
0.093750000 0.593750000 0.000000000
0.093750000 0.562500000 0.000000000
0.125000000 0.531250000 0.000000000
0.093750000 0.531250000 0.000000000
0.000000000 0.531250000 0.000000000
0.031250000 0.562500000 0.000000000
0.062500000 0.531250000 0.000000000
0.031250000 0.531250000 0.000000000
0.250000000 0.906250000 0.000000000
0.218750000 0.906250000 0.000000000
0.187500000 0.906250000 0.000000000
0.156250000 0.906250000 0.000000000
0.156250000 1.000000000 0.000000000
0.156250000 0.937500000 0.000000000
0.156250000 0.968750000 0.000000000
0.250000000 0.968750000 0.000000000
0.218750000 0.937500000 0.000000000
0.187500000 0.968750000 0.000000000
0.218750000 1.000000000 0.000000000
0.218750000 0.968750000 0.000000000
0.156250000 0.750000000 0.000000000
0.156250000 0.781250000 0.000000000
0.156250000 0.875000000 0.000000000
0.156250000 0.812500000 0.000000000
0.156250000 0.843750000 0.000000000
0.250000000 0.843750000 0.000000000
0.187500000 0.843750000 0.000000000
0.218750000 0.875000000 0.000000000
0.218750000 0.843750000 0.000000000
0.218750000 0.750000000 0.000000000
0.187500000 0.781250000 0.000000000
0.218750000 0.812500000 0.000000000
0.250000000 0.781250000 0.000000000
0.218750000 0.781250000 0.000000000
0.000000000 0.843750000 0.000000000
0.031250000 0.843750000 0.000000000
0.125000000 0.843750000 0.000000000
0.062500000 0.843750000 0.000000000
0.093750000 0.843750000 0.000000000
0.093750000 0.750000000 0.000000000
0.093750000 0.812500000 0.000000000
0.125000000 0.781250000 0.000000000
0.093750000 0.781250000 0.000000000
0.000000000 0.781250000 0.000000000
0.031250000 0.812500000 0.000000000
0.062500000 0.781250000 0.000000000
0.031250000 0.750000000 0.000000000
0.031250000 0.781250000 0.000000000
0.125000000 0.968750000 0.000000000
0.093750000 1.000000000 0.000000000
0.093750000 0.968750000 0.000000000
0.093750000 0.875000000 0.000000000
0.093750000 0.937500000 0.000000000
0.125000000 0.906250000 0.000000000
0.093750000 0.906250000 0.000000000
0.000000000 0.906250000 0.000000000
0.062500000 0.906250000 0.000000000
0.031250000 0.875000000 0.000000000
0.031250000 0.906250000 0.000000000
0.031250000 1.000000000 0.000000000
0.062500000 0.968750000 0.000000000
0.031250000 0.937500000 0.000000000
0.000000000 0.968750000 0.000000000
0.031250000 0.968750000 0.000000000
0.781250000 0.593750000 0.000000000
0.812500000 0.593750000 0.000000000
0.843750000 0.593750000 0.000000000
0.843750000 0.562500000 0.000000000
0.843750000 0.531250000 0.000000000
0.781250000 0.562500000 0.000000000
0.812500000 0.531250000 0.000000000
0.781250000 0.531250000 0.000000000
0.843750000 0.718750000 0.000000000
0.843750000 0.625000000 0.000000000
0.843750000 0.687500000 0.000000000
0.843750000 0.656250000 0.000000000
0.812500000 0.656250000 0.000000000
0.781250000 0.625000000 0.000000000
0.781250000 0.656250000 0.000000000
0.812500000 0.718750000 0.000000000
0.781250000 0.687500000 0.000000000
0.781250000 0.718750000 0.000000000
1.000000000 0.656250000 0.000000000
0.968750000 0.656250000 0.000000000
0.875000000 0.656250000 0.000000000
0.937500000 0.656250000 0.000000000
0.906250000 0.656250000 0.000000000
0.906250000 0.687500000 0.000000000
0.875000000 0.718750000 0.000000000
0.906250000 0.718750000 0.000000000
1.000000000 0.718750000 0.000000000
0.968750000 0.687500000 0.000000000
0.937500000 0.718750000 0.000000000
0.968750000 0.718750000 0.000000000
0.875000000 0.531250000 0.000000000
0.906250000 0.531250000 0.000000000
0.906250000 0.625000000 0.000000000
0.906250000 0.562500000 0.000000000
0.875000000 0.593750000 0.000000000
0.906250000 0.593750000 0.000000000
1.000000000 0.593750000 0.000000000
0.937500000 0.593750000 0.000000000
0.968750000 0.625000000 0.000000000
0.968750000 0.593750000 0.000000000
0.937500000 0.531250000 0.000000000
0.968750000 0.562500000 0.000000000
1.000000000 0.531250000 0.000000000
0.968750000 0.531250000 0.000000000
0.593750000 0.718750000 0.000000000
0.593750000 0.687500000 0.000000000
0.593750000 0.656250000 0.000000000
0.500000000 0.656250000 0.000000000
0.562500000 0.656250000 0.000000000
0.531250000 0.656250000 0.000000000
0.562500000 0.718750000 0.000000000
0.531250000 0.687500000 0.000000000
0.500000000 0.718750000 0.000000000
0.531250000 0.718750000 0.000000000
0.750000000 0.656250000 0.000000000
0.718750000 0.656250000 0.000000000
0.625000000 0.656250000 0.000000000
0.687500000 0.656250000 0.000000000
0.656250000 0.656250000 0.000000000
0.656250000 0.687500000 0.000000000
0.625000000 0.718750000 0.000000000
0.656250000 0.718750000 0.000000000
0.750000000 0.718750000 0.000000000
0.718750000 0.687500000 0.000000000
0.687500000 0.718750000 0.000000000
0.718750000 0.718750000 0.000000000
0.656250000 0.531250000 0.000000000
0.656250000 0.625000000 0.000000000
0.656250000 0.562500000 0.000000000
0.656250000 0.593750000 0.000000000
0.750000000 0.593750000 0.000000000
0.687500000 0.593750000 0.000000000
0.718750000 0.625000000 0.000000000
0.718750000 0.593750000 0.000000000
0.687500000 0.531250000 0.000000000
0.718750000 0.562500000 0.000000000
0.750000000 0.531250000 0.000000000
0.718750000 0.531250000 0.000000000
0.531250000 0.625000000 0.000000000
0.500000000 0.593750000 0.000000000
[...]
POINT_DATA 1089
SCALARS p float
LOOKUP_TABLE default
-0.045713535
-0.047382062
-0.048138423
-0.050555706
-0.053056456
-0.048106571
-0.052353739
-0.050568319
-0.043958721
-0.046055987
-0.043764079
-0.044529829
-0.043588956
-0.043585674
-0.041890172
-0.042454968
-0.040772673
-0.040364384
-0.013068064
-0.027889714
-0.044458143
-0.037810199
-0.042684453
-0.042607976
-0.044681001
-0.043855424
-0.007018863
-0.026919848
-0.039434290
-0.027548490
-0.052434930
-0.050112126
-0.043773515
-0.047795472
-0.047718218
-0.045576170
-0.021543828
-0.040842595
-0.029898114
-0.032623874
-0.045654506
-0.035720853
-0.030721920
-0.038864399
-0.019804493
-0.020595922
-0.021555772
-0.017597915
-0.013798600
-0.016038105
-0.013093333
-0.012453743
-0.039538995
-0.036618821
-0.025565475
-0.033232091
-0.029502557
-0.028350232
-0.023662978
-0.027506349
-0.037747711
-0.035398171
-0.031215373
-0.034667282
-0.035702351
-0.030904207
-0.034116590
-0.032475801
-0.043272569
-0.036523653
-0.038244000
-0.040169031
-0.040272943
-0.042266571
-0.047864050
-0.044382303
-0.014531447
-0.015237918
-0.028176978
-0.019425669
-0.022638421
-0.023779584
-0.024896550
-0.030848130
-0.025887733
-0.015849503
-0.020985926
-0.016284113
-0.040558569
-0.033799406
-0.027720888
-0.019834491
-0.026678447
-0.024081372
-0.040583555
-0.030500716
-0.032138934
-0.037918615
-0.027008192
-0.026864327
-0.027781393
-0.027038699
-0.027420940
-0.032336539
-0.039169805
-0.037431567
-0.034492058
-0.030941607
-0.035923720
-0.034912566
-0.010540651
-0.022739559
-0.014264680
-0.018340925
-0.019206238
-0.018542914
-0.022784689
-0.018799133
-0.010999805
-0.014990770
-0.011899453
-0.011426633
-0.018420030
-0.009783715
-0.013396756
-0.018018111
-0.015871024
-0.022241496
-0.017306686
-0.012880509
-0.009916767
-0.008937993
-0.001684385
-0.008937918
-0.007373923
-0.005001397
-0.046802763
-0.051871298
-0.059665315
-0.070928263
-0.009065714
-0.075402163
-0.066229205
-0.030097112
-0.049641989
-0.045517487
-0.005188531
-0.036283088
-0.042651940
-0.047956916
-0.064810023
-0.053350520
-0.058902797
-0.045324450
-0.052528928
-0.050501864
-0.048092660
-0.038676081
-0.044536976
-0.045290366
-0.040786743
-0.042149792
-0.072158138
-0.093116383
-0.067442606
-0.088694897
-0.077952980
-0.048122900
-0.066472532
-0.052225401
-0.056671049
-0.048033293
-0.071516719
-0.059601312
-0.046666684
-0.057668115
-0.087810645
-0.010864434
-0.165019238
-0.091604700
-0.129414334
-0.086612418
-0.109588696
-0.116139575
-0.137620974
-0.119105284
-0.187946870
0.002667549
-0.196993241
-0.222208202
-0.259133488
-0.602294197
0.000247720
0.007366717
0.013921438
0.014890017
0.015843961
0.004134147
0.012215800
0.007619142
0.015224149
0.013095404
0.013175675
0.012694313
0.002299196
-0.003840418
-0.007791703
0.000289720
-0.011108127
-0.013131362
0.005020433
0.020041473
0.021914312
0.027712824
0.027757041
0.034021191
0.030309930
0.042841948
0.023474133
0.029159984
0.048504975
0.042589156
0.017715921
0.017097384
0.023374039
0.018362011
0.018718113
0.020364223
-0.001142993
0.017690514
0.014025881
0.010284657
0.013566919
0.008174013
-0.001239300
0.007219532
-0.048814045
-0.043796434
-0.038124316
-0.037083503
-0.038504790
-0.038084407
-0.048815618
-0.043258235
-0.046330870
-0.047893101
-0.016740298
-0.024149946
-0.036711438
-0.029899958
-0.034037834
-0.039832410
-0.047581238
-0.044801976
-0.024441355
-0.029323761
-0.040175329
-0.033445404
-0.009586325
-0.027798702
-0.015317916
-0.021461964
-0.006589729
-0.017616100
-0.018439873
-0.012631013
-0.006119411
-0.007059903
0.002729369
-0.001956653
-0.032590858
-0.026632588
-0.026992721
-0.024201308
-0.026815058
-0.032081336
-0.025937954
-0.019932874
-0.012294813
-0.014258856
-0.016447559
-0.021486237
-0.015541930
-0.016236267
-0.015453691
-0.031019617
-0.041755178
-0.036364022
-0.037234504
-0.034555034
-0.009765988
-0.024288963
-0.016375512
-0.008927178
-0.048563293
-0.050768019
-0.046278464
-0.051151459
-0.049603027
-0.041432496
-0.022871023
-0.029593316
-0.035963303
-0.044925182
-0.034257033
-0.036359211
-0.055348127
-0.057087434
-0.054676009
-0.057873242
-0.057243171
-0.052899942
-0.057301686
-0.054255476
-0.055800778
-0.052865890
-0.056551761
-0.055823829
-0.051779246
-0.054724353
-0.040814773
-0.041758681
-0.043961946
-0.055559940
-0.048155242
-0.048593165
-0.052367038
-0.052170089
-0.053810131
-0.056148045
-0.053560752
-0.038461527
-0.044748402
-0.049315524
-0.041695274
-0.043811785
0.055197153
0.072266705
0.095992236
0.128056434
0.148590461
0.162780973
0.183092748
0.061660355
0.088576056
0.126122744
0.065191204
0.089150450
-0.013601683
0.006842307
0.093364384
0.031764290
0.060795403
0.019785172
0.041365475
0.050347951
0.028056169
-0.024796949
-0.003551280
0.007620073
-0.013075403
-0.010112799
0.104629443
0.141185546
0.086417107
0.139188384
0.115347731
0.005964071
0.070547863
0.020297949
0.034295733
0.026496929
0.083952471
0.043968664
0.012884217
0.043044193
0.249702000
0.297952170
0.391409463
0.168562834
0.295560523
0.172305318
0.229186679
0.230106550
0.297424683
0.217662674
0.350003426
0.613650611
0.480550585
0.490162969
0.352329902
1.006790022
0.014306806
0.015117071
0.015771884
0.014293602
0.012871057
0.012849700
0.012280084
0.011494849
0.020930539
0.017247914
0.019905665
0.018651759
0.018023058
0.015811510
0.017292235
0.020399121
0.018663284
0.019830460
0.023006212
0.021589385
0.019239616
0.020600282
0.019858048
0.021132471
0.021487186
0.022146138
0.026175359
0.023098090
0.023018336
0.024264772
0.013301702
0.013601892
0.018394632
0.015198769
0.016321112
0.016817557
0.018599871
0.017320079
0.019824022
0.017893980
0.013794497
0.015889251
0.013863016
0.013891465
0.012239317
0.009716881
0.007274393
-0.004412598
0.004014470
0.000127114
0.009615049
0.003097070
0.002547034
0.006400884
0.016401102
0.015289624
0.009960350
0.013893158
0.012141557
0.014115440
0.014345414
0.016013712
0.019167612
0.016901615
0.017324465
0.018352947
0.005584056
0.010221679
0.006894452
0.008451640
0.013290701
0.010422851
0.013629666
0.012015302
0.007570010
0.010517536
0.010477189
0.009184505
-0.002390748
-0.009055052
-0.004406355
0.006038237
-0.000348672
0.005047871
0.003121900
0.001537821
0.003176902
0.000303152
-0.011368293
-0.005919815
-0.003072103
-0.006965730
0.017668693
0.017196593
0.016767280
0.008045942
0.014258769
0.011239954
0.015684420
0.012333628
0.011077966
0.013414114
0.017676660
0.018924875
0.018546513
0.019578157
0.019483061
0.019835594
0.019199569
0.020163250
0.019519184
0.019679948
0.020515176
0.020275994
0.016708297
0.017457733
0.019087692
0.018093911
0.018631026
0.014649927
0.018124875
0.017954223
0.016704807
0.010611594
0.015791166
0.015108456
0.009834700
0.013096931
0.010152188
0.004686979
0.009109299
0.017998744
0.013073401
0.016399135
0.016122270
0.016371552
0.015980878
0.017647621
0.016036327
0.001304822
0.008175662
0.012554551
0.007065182
0.007448115
0.022839387
0.023173837
0.023140885
0.022768119
0.026136531
0.023576436
0.024628405
0.025021037
0.024056402
0.025180222
0.027307981
0.025326603
0.020484316
0.020818363
0.022130924
0.021187124
0.021615135
0.021654535
0.022007587
0.022528602
0.022022888
0.020763352
0.021235410
0.021592783
0.020699624
0.021187766
0.016514130
0.017646288
0.020890254
0.018794810
0.019914499
0.018174937
0.019291926
0.019956207
0.018714462
0.013823741
0.016583419
0.017197826
0.014477437
0.015530100
0.023773129
0.023364474
0.022770883
0.020587529
0.022053100
0.022122049
0.021307680
0.019300792
0.020461470
0.018712241
0.019746100
0.021123337
0.021846380
0.020642626
0.021366760
0.021242206
-0.000384169
0.000033229
0.000567688
-0.007188839
-0.001636124
-0.004219924
-0.002622510
-0.004760161
-0.008156944
-0.005215756
0.005870644
0.002402708
0.005033605
0.003884876
0.003398079
0.001502366
0.003047778
0.005452707
0.004267997
0.005182115
0.011536323
0.008904796
0.004574776
0.006959249
0.005560436
0.006628440
0.006487049
0.007371821
0.012615725
0.009787786
0.008614334
0.010320656
-0.003491690
-0.005460143
-0.002430323
0.004142898
0.000168002
0.001302165
0.002352567
0.008890719
0.003863369
0.007647262
0.005992408
-0.001559609
-0.000858378
0.003919106
0.004521310
0.001407849
0.005799491
0.004449611
0.002768820
0.004530486
0.003147919
0.003725478
0.006360257
0.005590203
0.008043350
0.007103439
0.002792154
0.002611001
0.002555665
0.002501878
0.002476209
0.003967175
0.005401000
0.005142554
0.005025828
0.003942731
0.005003318
0.004967155
-0.010242482
-0.006990736
0.000647999
-0.004081973
-0.001534891
-0.000735824
-0.001317103
0.000953126
-0.001045969
-0.009121533
-0.006544083
-0.003394673
-0.005649733
-0.006091457
0.001471915
-0.000599253
-0.001203051
-0.001672170
-0.001551557
0.000729288
-0.001692204
-0.011313849
-0.004509783
-0.007398907
-0.007723432
-0.007600227
-0.004321892
-0.007908701
-0.011893229
-0.007890801
0.005602605
0.006018224
0.006605807
0.003556667
0.005951535
0.004966610
0.004823111
0.004223763
0.002175970
0.003715235
0.006025098
0.006636051
0.006981393
0.006992900
0.007107131
0.006668538
0.006108163
0.006368087
0.005704361
0.006345399
0.006391013
0.006173542
0.011548422
0.010356031
0.007689711
0.009311703
0.008422961
0.006847222
0.008139399
0.007056277
0.007619642
0.010279569
0.009900817
0.008339390
0.008303186
0.009225158
0.005941144
0.006023935
0.007142506
0.008478210
0.007870756
0.007366818
0.008301372
0.012079343
0.009406013
0.010609598
0.010671286
0.009523527
0.008561063
0.010536121
0.011969869
0.010179480
0.007817069
0.007992393
0.007928144
0.007657769
0.010841026
0.008492744
0.009533384
0.010529769
0.009040392
0.010098165
0.012311217
0.010444286
0.006203108
0.006175825
0.007020656
0.006294087
0.006570611
0.006419130
0.006745570
0.007231669
0.006702840
0.006115339
0.006290311
0.006361683
0.005810598
0.006173754
0.002839187
0.004034951
0.006199643
0.004933502
0.005651464
0.005357866
0.005382301
0.005840245
0.005284141
0.001918026
0.003609419
0.004489276
0.003443013
0.003408412
0.008807227
0.008584558
0.007998958
0.006084125
0.007324327
0.007219089
0.006657525
0.004812427
0.006026920
0.004653117
0.005398555
0.006649319
0.007238542
0.006138616
0.006727121
0.006688940
-0.049828052
-0.045238190
-0.042606937
-0.009714005
-0.044011159
-0.037835369
-0.050032812
-0.038932534
-0.026165112
-0.043198658
-0.016761633
-0.038345667
-0.024497509
-0.032026790
-0.034761167
-0.045544394
-0.038406914
-0.018505522
-0.029558582
-0.020283010
-0.025672722
-0.033160644
-0.030846747
-0.033273755
-0.031474395
-0.022702404
-0.015448989
-0.014625108
-0.005495299
-0.020953343
-0.013757663
-0.011359898
-0.043129969
-0.010572520
-0.059982348
-0.040301082
-0.056372511
-0.043294454
-0.048602677
-0.059937499
-0.059500504
-0.049243463
-0.072430998
-0.256541037
-0.098608582
-0.110661837
-0.351817948
-0.181530007
0.009922229
0.004721588
0.000590312
0.012208364
0.025163999
0.036335252
0.018047398
0.021721965
-0.001686116
0.015101669
-0.041955461
-0.043955620
-0.021178480
-0.042512391
-0.035504074
-0.023806660
-0.001700119
-0.011644165
-0.021427253
-0.032711173
-0.018061989
-0.021032504
-0.028640808
-0.026087706
-0.043455674
-0.036706827
-0.044277434
-0.054697641
-0.055329231
-0.052844996
-0.057556817
-0.040897553
-0.044287376
-0.056638936
-0.047834393
-0.049611101
0.065354068
0.104058875
0.119926140
-0.020741120
0.068112296
0.002290491
0.017257203
0.060891319
0.050511237
0.013039477
0.085090666
0.724712457
0.219629568
0.209090062
0.537542529
0.401054889
0.013659949
0.016595015
0.019319758
0.024802455
0.020484449
0.021954904
0.014792755
0.019028760
0.016220986
0.015551938
-0.001183806
0.006718103
0.017877310
0.012157160
0.015671336
0.012111720
0.011818322
0.008894853
-0.010476037
0.001635266
0.004459737
-0.001913970
0.009606547
0.014956003
0.018710747
0.018861922
0.020091134
0.014174882
0.018937292
0.012503592
0.017092794
0.002961431
0.013617403
0.017788736
0.012791736
0.012689386
0.023730753
0.026993633
0.023992599
0.020885542
0.022505141
0.021179249
0.021597781
0.015159392
0.020394081
0.016432402
0.017983996
0.021953891
0.022888860
0.019626956
0.020583436
0.021237829
-0.007703692
-0.002180724
0.001888489
0.004579420
0.012260846
0.005689457
0.007954374
-0.003881477
-0.000896315
0.005603525
0.006929848
0.001716431
0.006467989
0.004924481
0.004061911
0.004139539
0.003907871
-0.009668816
0.000765499
-0.003018280
-0.003754450
-0.003858224
0.000998387
-0.004347392
-0.011700104
-0.004519724
0.002728944
0.005287890
0.005809232
0.006468598
0.006628232
0.011018382
0.007493261
0.007488257
0.008940313
0.007651955
0.006813432
0.009466246
0.012106970
0.009116319
0.008966427
0.011704786
0.008869575
0.006277451
0.007231694
0.006039522
0.006440184
0.002229833
0.005938617
0.004557080
0.004617350
0.007430890
0.007957527
0.005417406
0.005939835
0.006678905
-0.017117815
-0.045774756
-0.041222290
-0.026815610
-0.014558131
-0.023091514
-0.022694486
-0.043562534
-0.046739102
-0.045477954
-0.106980288
-0.076557447
0.000879407
0.019911640
-0.031911079
-0.011718531
-0.030505727
-0.040472160
-0.051593886
-0.054599478
-0.052325186
0.249455402
0.038281406
-0.004062392
0.175669714
0.127340457
0.020899297
0.017826721
-0.007043639
0.014842252
0.007889877
0.006398349
0.016348142
0.017607348
0.018256064
0.024856394
0.022183594
0.019561898
0.017906112
0.021461187
-0.006495926
0.010419916
0.003119528
0.002187596
0.001197949
-0.010807319
0.000625058
0.004656176
0.006365380
0.011895693
0.007650146
0.009771056
0.006992450
0.005898281
0.003725288
0.006627748
-0.006019300
-0.039590973
-0.037834803
0.040887444
-0.050024084
0.001587050
-0.025865081
0.027030823
0.006584867
0.012474716
0.020163606
0.012624229
-0.008618770
0.009300182
0.001902951
0.005703839
0.001652718
-0.034934623
-0.000156371
-4.005066477
5.096841195
0.021246622
0.006689351
-0.011811622
0.011609129


SCALARS u1 float
LOOKUP_TABLE default
-0.000100151
0.043365702
0.103238554
0.122195099
0.139338143
0.008719277
0.069440010
0.016432598
0.016934762
0.082839523
0.039240283
0.061370893
0.013305768
-0.009639248
-0.019502353
-0.017299864
-0.029267162
-0.038460832
1.000000000
0.689372395
0.135688859
0.433679214
0.253057552
0.218148574
0.076041688
0.180387133
1.000000000
0.665547177
0.359159079
0.637709068
0.234196363
0.364157370
0.285119534
0.340721058
0.189146422
0.314347628
1.000000000
0.492443028
0.709923049
0.727720473
0.538120411
0.743091078
1.000000000
0.756224888
-0.088136061
-0.097207923
-0.105810159
-0.111297074
-0.114917147
-0.091220948
-0.104282024
-0.093176436
-0.043426989
-0.061905202
-0.098326592
-0.076703464
-0.088699825
-0.083840172
-0.083891798
-0.078447227
-0.052778793
-0.062945030
-0.071697292
-0.063363763
-0.107473433
-0.093272454
-0.102460786
-0.097789042
-0.033197491
-0.080594856
-0.060610351
-0.059398607
-0.085579416
-0.058587602
-0.025106449
-0.058478716
-0.125112626
-0.134890125
-0.111522578
-0.129832727
-0.114074338
-0.122121757
-0.130051809
-0.124783780
-0.137930351
-0.144247732
-0.147266092
-0.153146380
-0.029220552
-0.025900688
-0.023672243
0.000000000
-0.012280038
-0.003503857
-0.016129357
-0.004021074
0.000000000
-0.004837002
-0.072265500
-0.065043173
-0.035558708
-0.056561716
-0.046699947
-0.048102342
-0.040998801
-0.050198364
-0.062758319
-0.063045926
-0.056652840
-0.060682218
-0.044293347
-0.045807463
-0.044764953
-0.045222282
-0.078467078
-0.056991067
-0.066742300
-0.068099038
-0.057004102
-0.069038981
-0.081577810
-0.069495373
-0.003175873
0.000000000
-0.002964364
-0.033083035
-0.010639588
-0.022192084
-0.021197160
-0.020493118
-0.031731644
-0.019940552
0.000000000
-0.002822214
-0.009853430
-0.002718248
0.139855747
0.096853411
0.052155230
0.007474097
1.000000000
0.141580702
0.453699851
0.604674836
0.263873163
0.515540956
1.000000000
0.564941415
-0.053049112
-0.056349628
-0.042211638
-0.058865552
-0.057107028
-0.004915729
-0.043435230
0.013847081
-0.025448531
-0.057597946
-0.056409500
-0.043861998
-0.046528213
-0.052791961
0.000000000
-0.016672311
-0.063928142
-0.043990459
-0.060590926
-0.034052678
-0.049870512
-0.051460220
-0.040843545
0.000000000
-0.011502724
-0.024975394
-0.006133994
-0.008173249
0.369902182
1.000000000
0.263383923
-0.069713723
-0.002226324
-0.033808726
-0.064588059
0.000000000
-0.074108876
-0.025993983
-0.038668223
1.000000000
0.099095552
-0.067225509
0.000000000
-0.014648240
-0.167968748
-0.151608687
-0.128220738
-0.119098404
-0.108871533
-0.162819268
-0.134120902
-0.154489580
-0.131033537
-0.135296172
-0.138300126
-0.139139381
-0.155474062
-0.168635357
-0.163364181
-0.133656667
-0.150569711
-0.128534016
0.000000000
-0.012560684
-0.113361623
-0.042831998
-0.079523463
-0.085501556
-0.117038306
-0.089760440
0.000000000
-0.014417410
-0.052417278
-0.016437062
-0.080266465
-0.051069641
-0.072602341
-0.058034467
-0.098557599
-0.065304536
0.000000000
-0.033374469
-0.010873017
-0.009353154
-0.025134137
-0.008000526
0.000000000
-0.006809970
-0.070394537
-0.105621215
-0.133149693
-0.112978761
-0.125822625
-0.119081853
-0.065106315
-0.093505708
-0.059357373
-0.061488575
-0.164766937
-0.161713640
-0.140884237
-0.155916983
-0.148671309
-0.121906057
-0.077455933
-0.086262877
-0.119081516
-0.139615813
-0.096582276
-0.107863760
-0.186326365
-0.167561965
-0.185438583
-0.179505897
-0.177796058
-0.182369279
-0.175480061
-0.182182361
-0.184723443
-0.183070833
-0.169496164
-0.179368637
-0.138918591
-0.145776344
-0.153545558
-0.174547740
-0.161110417
-0.153792179
-0.168235358
-0.177153236
-0.184942549
-0.181256586
-0.161495827
-0.163449789
-0.175838949
-0.169139606
0.402271000
0.418380053
0.426522013
1.000000000
0.592292480
0.785335816
0.570176922
0.779356961
1.000000000
0.768768481
-0.040506346
0.017059917
0.289374252
0.088859021
0.178238394
0.168362176
0.263846804
0.151800211
-0.064972713
0.005903716
0.062094615
-0.009116912
0.154273526
0.166564103
0.182238414
0.175713665
0.181154317
-0.026338775
0.096130875
0.024425511
0.028277055
0.022650451
0.088248248
0.028988692
-0.021936604
0.026973188
0.787486377
1.000000000
0.786379254
0.288520923
0.590509365
0.427982483
0.423783634
0.384494522
0.414735849
0.268453941
0.401475866
1.000000000
0.782437935
0.571275047
0.767194399
0.775972265
-0.091236328
-0.088429111
-0.079092217
-0.059470287
0.000000000
-0.060264770
-0.027067383
-0.018654151
-0.059896635
-0.023944160
0.000000000
-0.021055889
0.127838753
0.096107000
-0.029541828
0.057102278
0.013196409
-0.115241728
-0.047052852
-0.096765148
-0.088351315
-0.027691122
0.013814570
-0.070346302
-0.095355185
-0.048819907
1.000000000
0.645624398
0.099130930
0.395686304
0.221222907
0.376584099
0.288240497
0.202699452
0.339335306
1.000000000
0.694655141
0.512426509
0.752446795
0.728698437
-0.032256602
0.000000000
-0.035658717
0.138203113
-0.031192850
-0.022633938
0.046384372
1.000000000
0.180375681
0.571239242
0.457788253
0.000000000
-0.043278443
0.258919543
1.000000000
0.024349866
-0.105477250
-0.094998968
-0.084028906
-0.086671462
-0.087703799
-0.108226866
-0.098783410
-0.109111255
-0.058608900
-0.079783038
-0.066871425
-0.074011196
-0.084273048
-0.100832544
-0.094332378
-0.067473422
-0.086102011
-0.076366854
0.000000000
-0.020739496
-0.063146258
-0.037331040
-0.051150825
-0.045721756
-0.049418012
-0.039485365
0.000000000
-0.018275234
-0.028336146
-0.015414268
-0.075479825
-0.061550398
-0.055555625
-0.060794995
-0.072153433
-0.058794026
0.000000000
-0.043150747
-0.022701249
-0.024097507
-0.045132427
-0.024904437
0.000000000
-0.025131209
-0.140065591
-0.150853037
-0.158399031
-0.183149189
-0.168351993
-0.176862168
-0.151752847
-0.171652301
-0.172235666
-0.162726085
-0.104477501
-0.114885774
-0.147650660
-0.125617645
-0.136607032
-0.127955558
-0.128242763
-0.116695426
-0.085576066
-0.106098315
-0.105678895
-0.095308424
-0.146139574
-0.142624879
-0.147204270
-0.146101689
-0.115740024
-0.136092046
-0.121513290
-0.125936868
-0.137502721
-0.128198514
-0.118940882
-0.128401240
-0.178825893
-0.181297358
-0.178045345
-0.155730562
-0.172251865
-0.162890811
-0.164611696
-0.163884549
-0.154092382
-0.161033553
-0.171163663
-0.174997010
-0.166538139
-0.170101456
-0.015892180
-0.018410221
-0.021352889
0.000000000
-0.009807355
-0.002490195
-0.007216915
-0.002121578
0.000000000
-0.001816406
-0.103018883
-0.087334597
-0.036110566
-0.070304096
-0.052848890
-0.046268695
-0.027240699