# vtk DataFile Version 4.2
File created by MooNMD, Computational Time : 0.000000000, Date & Time: Sun Jun 25 18:09:56 2023

ASCII
DATASET UNSTRUCTURED_GRID
POINTS 1089 float
0.406250000 0.781250000 0.000000000
0.406250000 0.812500000 0.000000000
0.406250000 0.843750000 0.000000000
0.437500000 0.843750000 0.000000000
0.468750000 0.843750000 0.000000000
0.437500000 0.781250000 0.000000000
0.468750000 0.812500000 0.000000000
0.468750000 0.781250000 0.000000000
0.281250000 0.843750000 0.000000000
0.375000000 0.843750000 0.000000000
0.312500000 0.843750000 0.000000000
0.343750000 0.843750000 0.000000000
0.343750000 0.812500000 0.000000000
0.375000000 0.781250000 0.000000000
0.343750000 0.781250000 0.000000000
0.281250000 0.812500000 0.000000000
0.312500000 0.781250000 0.000000000
0.281250000 0.781250000 0.000000000
0.343750000 1.000000000 0.000000000
0.343750000 0.968750000 0.000000000
0.343750000 0.875000000 0.000000000
0.343750000 0.937500000 0.000000000
0.343750000 0.906250000 0.000000000
0.312500000 0.906250000 0.000000000
0.281250000 0.875000000 0.000000000
0.281250000 0.906250000 0.000000000
0.281250000 1.000000000 0.000000000
0.312500000 0.968750000 0.000000000
0.281250000 0.937500000 0.000000000
0.281250000 0.968750000 0.000000000
0.468750000 0.875000000 0.000000000
0.468750000 0.906250000 0.000000000
0.375000000 0.906250000 0.000000000
0.437500000 0.906250000 0.000000000
0.406250000 0.875000000 0.000000000
0.406250000 0.906250000 0.000000000
0.406250000 1.000000000 0.000000000
0.406250000 0.937500000 0.000000000
0.375000000 0.968750000 0.000000000
0.406250000 0.968750000 0.000000000
0.468750000 0.937500000 0.000000000
0.437500000 0.968750000 0.000000000
0.468750000 1.000000000 0.000000000
0.468750000 0.968750000 0.000000000
0.281250000 0.593750000 0.000000000
0.312500000 0.593750000 0.000000000
0.343750000 0.593750000 0.000000000
0.343750000 0.562500000 0.000000000
0.343750000 0.531250000 0.000000000
0.281250000 0.562500000 0.000000000
0.312500000 0.531250000 0.000000000
0.281250000 0.531250000 0.000000000
0.343750000 0.750000000 0.000000000
0.343750000 0.718750000 0.000000000
0.343750000 0.625000000 0.000000000
0.343750000 0.687500000 0.000000000
0.343750000 0.656250000 0.000000000
0.312500000 0.656250000 0.000000000
0.281250000 0.625000000 0.000000000
0.281250000 0.656250000 0.000000000
0.281250000 0.750000000 0.000000000
0.312500000 0.718750000 0.000000000
0.281250000 0.687500000 0.000000000
0.281250000 0.718750000 0.000000000
0.468750000 0.656250000 0.000000000
0.375000000 0.656250000 0.000000000
0.437500000 0.656250000 0.000000000
0.406250000 0.656250000 0.000000000
0.406250000 0.750000000 0.000000000
0.406250000 0.687500000 0.000000000
0.375000000 0.718750000 0.000000000
0.406250000 0.718750000 0.000000000
0.468750000 0.687500000 0.000000000
0.437500000 0.718750000 0.000000000
0.468750000 0.750000000 0.000000000
0.468750000 0.718750000 0.000000000
0.375000000 0.531250000 0.000000000
0.406250000 0.531250000 0.000000000
0.406250000 0.625000000 0.000000000
0.406250000 0.562500000 0.000000000
0.375000000 0.593750000 0.000000000
0.406250000 0.593750000 0.000000000
0.437500000 0.593750000 0.000000000
0.468750000 0.625000000 0.000000000
0.468750000 0.593750000 0.000000000
0.437500000 0.531250000 0.000000000
0.468750000 0.562500000 0.000000000
0.468750000 0.531250000 0.000000000
0.093750000 0.718750000 0.000000000
0.093750000 0.687500000 0.000000000
0.093750000 0.656250000 0.000000000
0.000000000 0.656250000 0.000000000
0.062500000 0.656250000 0.000000000
0.031250000 0.656250000 0.000000000
0.062500000 0.718750000 0.000000000
0.031250000 0.687500000 0.000000000
0.000000000 0.718750000 0.000000000
0.031250000 0.718750000 0.000000000
0.250000000 0.656250000 0.000000000
0.218750000 0.656250000 0.000000000
0.125000000 0.656250000 0.000000000
0.187500000 0.656250000 0.000000000
0.156250000 0.656250000 0.000000000
0.156250000 0.687500000 0.000000000
0.125000000 0.718750000 0.000000000
0.156250000 0.718750000 0.000000000
0.250000000 0.718750000 0.000000000
0.218750000 0.687500000 0.000000000
0.187500000 0.718750000 0.000000000
0.218750000 0.718750000 0.000000000
0.156250000 0.531250000 0.000000000
0.156250000 0.625000000 0.000000000
0.156250000 0.562500000 0.000000000
0.156250000 0.593750000 0.000000000
0.250000000 0.593750000 0.000000000
0.187500000 0.593750000 0.000000000
0.218750000 0.625000000 0.000000000
0.218750000 0.593750000 0.000000000
0.187500000 0.531250000 0.000000000
0.218750000 0.562500000 0.000000000
0.250000000 0.531250000 0.000000000
0.218750000 0.531250000 0.000000000
0.031250000 0.625000000 0.000000000
0.000000000 0.593750000 0.000000000
0.031250000 0.593750000 0.000000000
0.125000000 0.593750000 0.000000000
0.062500000 0.593750000 0.000000000
0.093750000 0.625000000 0.000000000
0.093750000 0.593750000 0.000000000
0.093750000 0.562500000 0.000000000
0.125000000 0.531250000 0.000000000
0.093750000 0.531250000 0.000000000
0.000000000 0.531250000 0.000000000
0.031250000 0.562500000 0.000000000
0.062500000 0.531250000 0.000000000
0.031250000 0.531250000 0.000000000
0.250000000 0.906250000 0.000000000
0.218750000 0.906250000 0.000000000
0.187500000 0.906250000 0.000000000
0.156250000 0.906250000 0.000000000
0.156250000 1.000000000 0.000000000
0.156250000 0.937500000 0.000000000
0.156250000 0.968750000 0.000000000
0.250000000 0.968750000 0.000000000
0.218750000 0.937500000 0.000000000
0.187500000 0.968750000 0.000000000
0.218750000 1.000000000 0.000000000
0.218750000 0.968750000 0.000000000
0.156250000 0.750000000 0.000000000
0.156250000 0.781250000 0.000000000
0.156250000 0.875000000 0.000000000
0.156250000 0.812500000 0.000000000
0.156250000 0.843750000 0.000000000
0.250000000 0.843750000 0.000000000
0.187500000 0.843750000 0.000000000
0.218750000 0.875000000 0.000000000
0.218750000 0.843750000 0.000000000
0.218750000 0.750000000 0.000000000
0.187500000 0.781250000 0.000000000
0.218750000 0.812500000 0.000000000
0.250000000 0.781250000 0.000000000
0.218750000 0.781250000 0.000000000
0.000000000 0.843750000 0.000000000
0.031250000 0.843750000 0.000000000
0.125000000 0.843750000 0.000000000
0.062500000 0.843750000 0.000000000
0.093750000 0.843750000 0.000000000
0.093750000 0.750000000 0.000000000
0.093750000 0.812500000 0.000000000
0.125000000 0.781250000 0.000000000
0.093750000 0.781250000 0.000000000
0.000000000 0.781250000 0.000000000
0.031250000 0.812500000 0.000000000
0.062500000 0.781250000 0.000000000
0.031250000 0.750000000 0.000000000
0.031250000 0.781250000 0.000000000
0.125000000 0.968750000 0.000000000
0.093750000 1.000000000 0.000000000
0.093750000 0.968750000 0.000000000
0.093750000 0.875000000 0.000000000
0.093750000 0.937500000 0.000000000
0.125000000 0.906250000 0.000000000
0.093750000 0.906250000 0.000000000
0.000000000 0.906250000 0.000000000
0.062500000 0.906250000 0.000000000
0.031250000 0.875000000 0.000000000
0.031250000 0.906250000 0.000000000
0.031250000 1.000000000 0.000000000
0.062500000 0.968750000 0.000000000
0.031250000 0.937500000 0.000000000
0.000000000 0.968750000 0.000000000
0.031250000 0.968750000 0.000000000
0.781250000 0.593750000 0.000000000
0.812500000 0.593750000 0.000000000
0.843750000 0.593750000 0.000000000
0.843750000 0.562500000 0.000000000
0.843750000 0.531250000 0.000000000
0.781250000 0.562500000 0.000000000
0.812500000 0.531250000 0.000000000
0.781250000 0.531250000 0.000000000
0.843750000 0.718750000 0.000000000
0.843750000 0.625000000 0.000000000
0.843750000 0.687500000 0.000000000
0.843750000 0.656250000 0.000000000
0.812500000 0.656250000 0.000000000
0.781250000 0.625000000 0.000000000
0.781250000 0.656250000 0.000000000
0.812500000 0.718750000 0.000000000
0.781250000 0.687500000 0.000000000
0.781250000 0.718750000 0.000000000
1.000000000 0.656250000 0.000000000
0.968750000 0.656250000 0.000000000
0.875000000 0.656250000 0.000000000
0.937500000 0.656250000 0.000000000
0.906250000 0.656250000 0.000000000
0.906250000 0.687500000 0.000000000
0.875000000 0.718750000 0.000000000
0.906250000 0.718750000 0.000000000
1.000000000 0.718750000 0.000000000
0.968750000 0.687500000 0.000000000
0.937500000 0.718750000 0.000000000
0.968750000 0.718750000 0.000000000
0.875000000 0.531250000 0.000000000
0.906250000 0.531250000 0.000000000
0.906250000 0.625000000 0.000000000
0.906250000 0.562500000 0.000000000
0.875000000 0.593750000 0.000000000
0.906250000 0.593750000 0.000000000
1.000000000 0.593750000 0.000000000
0.937500000 0.593750000 0.000000000
0.968750000 0.625000000 0.000000000
0.968750000 0.593750000 0.000000000
0.937500000 0.531250000 0.000000000
0.968750000 0.562500000 0.000000000
1.000000000 0.531250000 0.000000000
0.968750000 0.531250000 0.000000000
0.593750000 0.718750000 0.000000000
0.593750000 0.687500000 0.000000000
0.593750000 0.656250000 0.000000000
0.500000000 0.656250000 0.000000000
0.562500000 0.656250000 0.000000000
0.531250000 0.656250000 0.000000000
0.562500000 0.718750000 0.000000000
0.531250000 0.687500000 0.000000000
0.500000000 0.718750000 0.000000000
0.531250000 0.718750000 0.000000000
0.750000000 0.656250000 0.000000000
0.718750000 0.656250000 0.000000000
0.625000000 0.656250000 0.000000000
0.687500000 0.656250000 0.000000000
0.656250000 0.656250000 0.000000000
0.656250000 0.687500000 0.000000000
0.625000000 0.718750000 0.000000000
0.656250000 0.718750000 0.000000000
0.750000000 0.718750000 0.000000000
0.718750000 0.687500000 0.000000000
0.687500000 0.718750000 0.000000000
0.718750000 0.718750000 0.000000000
0.656250000 0.531250000 0.000000000
0.656250000 0.625000000 0.000000000
0.656250000 0.562500000 0.000000000
0.656250000 0.593750000 0.000000000
0.750000000 0.593750000 0.000000000
0.687500000 0.593750000 0.000000000
0.718750000 0.625000000 0.000000000
0.718750000 0.593750000 0.000000000
0.687500000 0.531250000 0.000000000
0.718750000 0.562500000 0.000000000
0.750000000 0.531250000 0.000000000
0.718750000 0.531250000 0.000000000
0.531250000 0.625000000 0.000000000
0.500000000 0.593750000 0.000000000
[...]
POINT_DATA 1089
SCALARS C float
LOOKUP_TABLE default
0.615968890
0.664964879
0.716656187
0.726069015
0.732653007
0.627217159
0.682825936
0.635168728
0.644034662
0.704180618
0.668468328
0.688286279
0.633660053
0.601234530
0.582730735
0.585722157
0.560073172
0.532770167
1.000000000
0.935203933
0.746347051
0.870625261
0.807363507
0.793540671
0.707650303
0.776146265
1.000000000
0.930208648
0.848654518
0.923845101
0.784334174
0.837454786
0.818277700
0.833067034
0.770731068
0.826741629
1.000000000
0.884105614
0.939112088
0.942121882
0.891507074
0.944359112
1.000000000
0.945903878
0.309076883
0.331773436
0.351565337
0.323418344
0.297529009
0.283475596
0.280051373
0.260178774
0.535578063
0.492141182
0.382238201
0.452260197
0.415711995
0.393914702
0.337327647
0.368610769
0.484976504
0.469134868
0.403345680
0.441980936
0.469317582
0.434082618
0.460837298
0.449104006
0.569853109
0.486470782
0.511254906
0.526692202
0.506958841
0.538619389
0.589899710
0.547146887
0.312541558
0.325032080
0.414456469
0.352617920
0.368430639
0.382358277
0.393337454
0.434151777
0.401349253
0.334950081
0.370768062
0.342245776
0.180920816
0.160931738
0.144247744
0.000000000
0.097111888
0.048738693
0.122325519
0.054505268
0.000000000
0.061514563
0.339736614
0.307269912
0.189373278
0.271260223
0.231863167
0.257239939
0.236073030
0.286928055
0.410404982
0.338530242
0.333007163
0.374145967
0.159016964
0.209943667
0.173982056
0.190821711
0.283521306
0.224222256
0.279682098
0.255190596
0.187246558
0.233311874
0.238001944
0.213639821
0.043903109
0.000000000
0.039781674
0.155273052
0.079277132
0.130102622
0.117943247
0.107360362
0.129189257
0.098044081
0.000000000
0.036218577
0.065899040
0.033098603
0.754219172
0.726346447
0.690406004
0.643128339
1.000000000
0.750470025
0.871457651
0.915688857
0.812853590
0.890949772
1.000000000
0.905080356
0.322041281
0.364032659
0.551984089
0.414773139
0.476573601
0.614053772
0.532133462
0.647537189
0.577289560
0.414913919
0.416565792
0.515561787
0.500221841
0.461734267
0.000000000
0.116725261
0.408316780
0.227297822
0.325374099
0.205304952
0.274454030
0.303702696
0.235679878
0.000000000
0.096171840
0.160913484
0.070231940
0.081384221
0.843182872
1.000000000
0.799058264
0.394386539
0.624839741
0.579349948
0.490877095
0.000000000
0.365204272
0.147202955
0.196988471
1.000000000
0.721854186
0.291192043
0.000000000
0.561811868
0.300975023
0.270083545
0.234954985
0.215965887
0.198730105
0.277130195
0.228745367
0.255292417
0.336801404
0.256041135
0.306339438
0.279653962
0.320509558
0.327154230
0.356052061
0.383788567
0.388121901
0.423898223
0.000000000
0.064692454
0.233440781
0.125570570
0.181981431
0.200159632
0.282657278
0.221348557
0.000000000
0.071284974
0.153230554
0.079066841
0.165289803
0.128520060
0.166152248
0.139738485
0.195618086
0.152190951
0.000000000
0.104889563
0.059006044
0.054026737
0.088571545
0.049610096
0.000000000
0.045648107
0.547330806
0.507483744
0.470170430
0.474547068
0.475071117
0.476490335
0.552527394
0.514098913
0.552325641
0.554144457
0.386442915
0.411919032
0.461626170
0.432755330
0.449234698
0.485835993
0.538340161
0.525267234
0.457577831
0.446997678
0.507749048
0.485350980
0.327365237
0.415286932
0.354558530
0.383796619
0.327674793
0.368938920
0.379785483
0.350283692
0.314332849
0.323121981
0.278374268
0.298031542
0.441262450
0.406360290
0.408318201
0.395017376
0.407148827
0.435302186
0.402755045
0.372380341
0.337225539
0.344013125
0.346865503
0.377529978
0.347824297
0.348748389
0.798594400
0.813043848
0.823766735
1.000000000
0.881905165
0.940951330
0.864161456
0.937064753
1.000000000
0.931768689
0.567670031
0.613130524
0.767307614
0.661653025
0.713129358
0.697835463
0.736164517
0.677593062
0.527311992
0.595757276
0.623244119
0.573192905
0.736536977
0.737753613
0.724270878
0.736241223
0.731838387
0.589752266
0.682152517
0.625953841
0.634726176
0.639924395
0.688613006
0.639820534
0.596631090
0.641498964
0.943727254
1.000000000
0.945591368
0.783486197
0.890926503
0.831483161
0.836687683
0.840016201
0.839715659
0.788610899
0.840784093
1.000000000
0.946675355
0.893787396
0.946800549
0.947062865
0.246483361
0.276924193
0.314710371
0.362995961
0.000000000
0.257609072
0.135046476
0.088456083
0.193133853
0.115028372
0.000000000
0.100096128
0.651321354
0.617569252
0.449845664
0.574422291
0.519449846
0.371956987
0.461512922
0.350281869
0.413006849
0.544640881
0.560093859
0.465641246
0.464004515
0.509149153
1.000000000
0.881881856
0.589125425
0.770921411
0.672673917
0.779364397
0.719468947
0.682107972
0.753785632
1.000000000
0.901323340
0.831920055
0.924606467
0.914856800
0.163498343
0.000000000
0.207327620
0.607425250
0.382307514
0.426800596
0.514180162
1.000000000
0.637685614
0.852391708
0.803522218
0.000000000
0.283548080
0.710381177
1.000000000
0.441339504
0.131705322
0.113811409
0.095869761
0.096811265
0.096960625
0.133039944
0.115130209
0.133258792
0.083745789
0.094114067
0.088073701
0.091522543
0.108576892
0.129225060
0.125570484
0.099226468
0.120714046
0.114629167
0.000000000
0.019646335
0.074254702
0.038469066
0.056620999
0.054556866
0.068040576
0.051963236
0.000000000
0.018958811
0.035364688
0.018094268
0.078591823
0.059866932
0.058170265
0.059779599
0.077723951
0.059218585
0.000000000
0.040198958
0.020162042
0.020510782
0.040630067
0.020697233
0.000000000
0.020726019
0.213725597
0.225546257
0.235013298
0.302011485
0.256026643
0.278296763
0.232814838
0.267090793
0.274765423
0.253096462
0.142656957
0.159991508
0.215075470
0.177731661
0.196038090
0.188199334
0.195646283
0.178404769
0.130100173
0.153681153
0.161837271
0.145786533
0.208597182
0.201956117
0.208191405
0.205992913
0.149709377
0.186689526
0.164747918
0.167983375
0.189009384
0.169733239
0.151506335
0.170034967
0.286776345
0.317478635
0.292597096
0.226061866
0.269187148
0.242170719
0.247068190
0.249759057
0.228969066
0.250298829
0.321809437
0.295828654
0.272763023
0.296540180
0.063848842
0.070533696
0.077440929
0.000000000
0.053572293
0.027745420
0.044281823
0.025333948
0.000000000
0.023000420
0.166624872
0.152836858
0.099319605
0.137025805
0.119185601
0.108353842
0.081708000
0.097868000
0.136280316
0.138765509
0.112340085
0.125138407
0.182967581
0.168445715
0.130480273
0.154967448
0.142362414
0.199515363
0.163838099
0.167495006
0.182890233
0.235180307
0.193941434
0.199183373
0.236261690
0.216549166
0.030263031
0.000000000
0.032917080
0.118484016
0.063694755
0.084649054
0.092242189
0.118320100
0.100312834
0.140097924
0.108965288
0.000000000
0.035741077
0.075147076
0.042057677
0.038773115
0.048824108
0.045121073
0.040831732
0.035927204
0.000000000
0.024648875
0.012727680
0.017046865
0.030798756
0.014373888
0.000000000
0.015809663
0.087615782
0.077486977
0.046715371
0.067370888
0.057153650
0.078516156
0.065250441
0.058926527
0.072360291
0.111818256
0.088745628
0.085562850
0.107289967
0.098670812
0.000000000
0.013900364
0.048029169
0.026476323
0.037825312
0.057311059
0.044377529
0.064864941
0.050845942
0.000000000
0.016196714
0.035391771
0.020717775
0.018459136
0.010853886
0.000000000
0.008725750
0.031100201
0.016693658
0.030368187
0.024098630
0.000000000
0.017035627
0.011535291
0.009057892
0.000000000
0.006297306
0.006406631
0.000000000
0.003477972
0.150868587
0.132114215
0.112174908
0.145599038
0.122382171
0.133461252
0.164680596
0.157253353
0.195831610
0.179595490
0.077114992
0.102678744
0.085270114
0.093752642
0.110272034
0.137966791
0.125802582
0.090506417
0.114218699
0.103069281
0.000000000
0.019876919
0.076346184
0.039299178
0.058158766
0.053032582
0.062960384
0.048107968
0.000000000
0.018187989
0.032622243
0.016566061
0.108407496
0.089754540
0.082302051
0.063561290
0.075533385
0.091193151
0.069322057
0.000000000
0.046722654
0.021658335
0.023560230
0.030334293
0.055372447
0.025614327
0.000000000
0.027857604
0.157575903
0.175125272
0.193278191
0.207257992
0.199545553
0.204223534
0.162654305
0.185030418
0.168927932
0.166453348
0.140248050
0.153518510
0.185478581
0.165530634
0.176207588
0.159704218
0.151265453
0.143772719
0.114739069
0.139227497
0.135150127
0.125452901
0.273640708
0.251510640
0.193454673
0.230910414
0.211625602
0.168307856
0.198785005
0.168489582
0.184314825
0.238877306
0.236390567
0.201181740
0.200322934
0.219294452
0.224205449
0.248744233
0.245152834
0.222753983
0.239583241
0.212208495
0.232095836
0.299392763
0.253126223
0.264569238
0.275492233
0.294798785
0.267246130
0.284212997
0.315606966
0.290668965
0.045201056
0.048395943
0.051229233
0.000000000
0.034875136
0.017849530
0.030856557
0.016905460
0.000000000
0.015840156
0.128247924
0.112969806
0.067063892
0.097782072
0.082530901
0.077800884
0.059023826
0.072473051
0.112038933
0.106318968
0.085695116
0.098835302
0.096340448
0.094973967
0.086638421
0.092885066
0.090098227
0.140461343
0.106882224
0.118748655
0.123617127
0.132392960
0.112745072
0.127537885
0.148323333
0.130474789
0.018668420
0.000000000
0.019357750
0.073108632
0.037892579
0.053687957
0.055758221
0.059494357
0.057425683
0.077003179
0.058675865
0.000000000
0.019912903
0.039836223
0.020601770
0.020329158
0.043314460
0.038583220
0.033844200
0.029022767
0.000000000
0.019928083
0.010266201
0.014987093
0.026293575
0.011862715
0.000000000
0.013427445
0.066570844
0.060115472
0.037578159
0.053124579
0.045610503
0.069177799
0.053533020
0.050277400
0.061352445
0.090558302
0.070870596
0.071779911
0.092216431
0.081527158
0.000000000
0.010408685
0.037469278
0.020014505
0.028983582
0.041655931
0.033545763
0.049127846
0.037769297
0.000000000
0.011942450
0.025895794
0.014656838
0.013357548
0.008606523
0.000000000
0.006843304
0.024071235
0.013066464
0.024035193
0.018782130
0.000000000
0.013138796
0.008748355
0.006944633
0.000000000
0.004917784
0.004963041
0.000000000
0.002728071
0.675452544
0.651144034
0.612055144
1.000000000
0.729120985
0.860937298
0.778750352
0.878231825
1.000000000
0.888480770
0.304765811
0.512493978
0.361380660
0.429717698
0.471130961
0.581569938
0.498389838
0.339381866
0.425865005
0.363092319
0.000000000
0.108527633
0.372990015
0.210748143
0.299920441
0.246238999
0.259621787
0.204697230
0.000000000
0.087498158
0.141429097
0.072151400
0.833013694
1.000000000
0.786344946
0.371493980
0.605488170
0.553881122
0.469611771
0.000000000
0.349908449
0.139355717
0.189065438
1.000000000
0.699951574
0.281916955
0.000000000
0.505022455
0.248459534
0.293961139
0.350240976
0.000000000
0.256286916
0.138289991
0.179689408
0.114558904
0.000000000
0.096294511
0.512203197
0.512569527
0.420255842
0.498653918
0.468732094
0.399574145
0.301996246
0.340604055
0.375599823
0.439965922
0.365109576
0.376486159
1.000000000
0.874376119
0.550030591
0.753976524
0.645031917
0.687204270
0.673842485
0.594960310
0.686984390
1.000000000
0.887298500
0.787285725
0.893267526
0.893036689
0.171137582
0.000000000
0.220984562
0.595334624
0.394816298
0.421935584
0.516046679
1.000000000
0.641979865
0.850434665
0.806569894
0.000000000
0.308137721
0.718703232
1.000000000
0.499939402
0.114947361
0.111696337
0.104428402
0.000000000
0.071499930
0.037093685
0.078474117
0.039500978
0.000000000
0.040572260
0.289899716
0.245703612
0.137081070
0.206436252
0.170668180
0.183060117
0.151248170
0.188658819
0.320996580
0.263835382
0.228500579
0.272142457
0.000000000
0.048850866
0.151210785
0.090370248
0.124483764
0.210653891
0.150097526
0.217317978
0.178397719
0.000000000
0.058500716
0.128921466
0.081563959
0.069219103
0.033270792
0.000000000
0.027932081
0.100468564
0.053223525
0.092946475
0.077048003
0.000000000
0.056495222
0.039812768
0.030965420
0.000000000
0.020918229
0.021859394
0.000000000
0.011900391
0.171527105
0.144184464
0.120863094
0.100197331
0.000000000
0.069520150
0.035893375
0.060350341
0.099438458
0.042890382
0.000000000
0.050858951
0.187784744
0.180793976
0.127254168
0.168076813
0.150066700
0.257346584
0.181710665
0.183723008
0.216943607
0.271110524
0.219082550
0.242996542
0.308721475
0.261230790
0.000000000
0.032986798
0.120619536
0.063283944
0.092096133
0.114386843
0.102721305
0.144957388
0.110233646
0.000000000
0.036513381
0.075334492
0.040381608
0.039003368
0.029437946
0.000000000
0.023140988
0.078610062
0.043976081
0.081074222
0.062503830
0.000000000
0.043516215
0.028491298
0.023071481
0.000000000
0.016594800
0.016712498
0.000000000
0.009241349
1.000000000
0.760047337
0.554597826
0.399921121
0.000000000
0.310080485
0.171093661
1.000000000
0.680927252
0.266516763
0.000000000
0.483203068
0.000000000
0.213397744
0.439299244
0.355710416
0.427132037
1.000000000
0.580766486
0.787609241
0.776956549
0.000000000
0.313534545
0.712742318
1.000000000
0.519119961
0.000000000
0.076323404
0.311177380
0.146856305
0.221602703
0.000000000
0.182673631
0.152162463
0.108655461
0.000000000
0.063856833
0.073237520
0.000000000
0.039359850
0.118260399
0.000000000
0.083535268
0.227519446
0.153876850
0.287678868
0.203644161
0.000000000
0.134876991
0.078095302
0.070345221
0.000000000
0.056575703
0.054300394
0.000000000
0.030981679
1.000000000
0.000000000
0.452600486
0.000000000
0.594919385
1.000000000
0.498876871
0.000000000
0.256542178
0.000000000
0.121687577
0.000000000
0.218331639
0.150519118
0.000000000
0.102554690
0.000000000
1.000000000
0.000000000
1.000000000
0.000000000
0.000000000
0.000000000
0.319990399
0.000000000



