# vtk DataFile Version 4.2
File created by MooNMD, Computational Time : 0.000000000, Date & Time: Sun Jun 25 17:56:47 2023

ASCII
DATASET UNSTRUCTURED_GRID
POINTS 2145 float
7.031250000 0.281250000 0.000000000
7.031250000 0.312500000 0.000000000
7.031250000 0.343750000 0.000000000
7.187500000 0.343750000 0.000000000
7.343750000 0.343750000 0.000000000
7.187500000 0.281250000 0.000000000
7.343750000 0.312500000 0.000000000
7.343750000 0.281250000 0.000000000
6.406250000 0.343750000 0.000000000
6.875000000 0.343750000 0.000000000
6.562500000 0.343750000 0.000000000
6.718750000 0.343750000 0.000000000
6.718750000 0.312500000 0.000000000
6.875000000 0.281250000 0.000000000
6.718750000 0.281250000 0.000000000
6.406250000 0.312500000 0.000000000
6.562500000 0.281250000 0.000000000
6.406250000 0.281250000 0.000000000
6.718750000 0.500000000 0.000000000
6.718750000 0.468750000 0.000000000
6.718750000 0.375000000 0.000000000
6.718750000 0.437500000 0.000000000
6.718750000 0.406250000 0.000000000
6.562500000 0.406250000 0.000000000
6.406250000 0.375000000 0.000000000
6.406250000 0.406250000 0.000000000
6.406250000 0.500000000 0.000000000
6.562500000 0.468750000 0.000000000
6.406250000 0.437500000 0.000000000
6.406250000 0.468750000 0.000000000
7.343750000 0.375000000 0.000000000
7.343750000 0.406250000 0.000000000
6.875000000 0.406250000 0.000000000
7.187500000 0.406250000 0.000000000
7.031250000 0.375000000 0.000000000
7.031250000 0.406250000 0.000000000
7.031250000 0.500000000 0.000000000
7.031250000 0.437500000 0.000000000
6.875000000 0.468750000 0.000000000
7.031250000 0.468750000 0.000000000
7.343750000 0.437500000 0.000000000
7.187500000 0.468750000 0.000000000
7.343750000 0.500000000 0.000000000
7.343750000 0.468750000 0.000000000
6.406250000 0.093750000 0.000000000
6.562500000 0.093750000 0.000000000
6.718750000 0.093750000 0.000000000
6.718750000 0.062500000 0.000000000
6.718750000 0.031250000 0.000000000
6.406250000 0.062500000 0.000000000
6.562500000 0.031250000 0.000000000
6.406250000 0.031250000 0.000000000
6.718750000 0.250000000 0.000000000
6.718750000 0.218750000 0.000000000
6.718750000 0.125000000 0.000000000
6.718750000 0.187500000 0.000000000
6.718750000 0.156250000 0.000000000
6.562500000 0.156250000 0.000000000
6.406250000 0.125000000 0.000000000
6.406250000 0.156250000 0.000000000
6.406250000 0.250000000 0.000000000
6.562500000 0.218750000 0.000000000
6.406250000 0.187500000 0.000000000
6.406250000 0.218750000 0.000000000
7.343750000 0.156250000 0.000000000
6.875000000 0.156250000 0.000000000
7.187500000 0.156250000 0.000000000
7.031250000 0.156250000 0.000000000
7.031250000 0.250000000 0.000000000
7.031250000 0.187500000 0.000000000
6.875000000 0.218750000 0.000000000
7.031250000 0.218750000 0.000000000
7.343750000 0.187500000 0.000000000
7.187500000 0.218750000 0.000000000
7.343750000 0.250000000 0.000000000
7.343750000 0.218750000 0.000000000
6.875000000 0.031250000 0.000000000
7.031250000 0.031250000 0.000000000
7.031250000 0.125000000 0.000000000
7.031250000 0.062500000 0.000000000
6.875000000 0.093750000 0.000000000
7.031250000 0.093750000 0.000000000
7.187500000 0.093750000 0.000000000
7.343750000 0.125000000 0.000000000
7.343750000 0.093750000 0.000000000
7.187500000 0.031250000 0.000000000
7.343750000 0.062500000 0.000000000
7.343750000 0.031250000 0.000000000
5.468750000 0.218750000 0.000000000
5.468750000 0.187500000 0.000000000
5.468750000 0.156250000 0.000000000
5.312500000 0.156250000 0.000000000
5.156250000 0.156250000 0.000000000
5.312500000 0.218750000 0.000000000
5.156250000 0.187500000 0.000000000
5.156250000 0.218750000 0.000000000
6.250000000 0.156250000 0.000000000
6.093750000 0.156250000 0.000000000
5.625000000 0.156250000 0.000000000
5.937500000 0.156250000 0.000000000
5.781250000 0.156250000 0.000000000
5.781250000 0.187500000 0.000000000
5.625000000 0.218750000 0.000000000
5.781250000 0.218750000 0.000000000
6.250000000 0.218750000 0.000000000
6.093750000 0.187500000 0.000000000
5.937500000 0.218750000 0.000000000
6.093750000 0.218750000 0.000000000
5.781250000 0.031250000 0.000000000
5.781250000 0.125000000 0.000000000
5.781250000 0.062500000 0.000000000
5.781250000 0.093750000 0.000000000
6.250000000 0.093750000 0.000000000
5.937500000 0.093750000 0.000000000
6.093750000 0.125000000 0.000000000
6.093750000 0.093750000 0.000000000
5.937500000 0.031250000 0.000000000
6.093750000 0.062500000 0.000000000
6.250000000 0.031250000 0.000000000
6.093750000 0.031250000 0.000000000
5.156250000 0.125000000 0.000000000
5.156250000 0.093750000 0.000000000
5.625000000 0.093750000 0.000000000
5.312500000 0.093750000 0.000000000
5.468750000 0.125000000 0.000000000
5.468750000 0.093750000 0.000000000
5.468750000 0.062500000 0.000000000
5.625000000 0.031250000 0.000000000
5.468750000 0.031250000 0.000000000
5.156250000 0.062500000 0.000000000
5.312500000 0.031250000 0.000000000
5.156250000 0.031250000 0.000000000
6.250000000 0.406250000 0.000000000
6.093750000 0.406250000 0.000000000
5.937500000 0.406250000 0.000000000
5.781250000 0.406250000 0.000000000
5.781250000 0.500000000 0.000000000
5.781250000 0.437500000 0.000000000
5.781250000 0.468750000 0.000000000
6.250000000 0.468750000 0.000000000
6.093750000 0.437500000 0.000000000
5.937500000 0.468750000 0.000000000
6.093750000 0.500000000 0.000000000
6.093750000 0.468750000 0.000000000
5.781250000 0.250000000 0.000000000
5.781250000 0.281250000 0.000000000
5.781250000 0.375000000 0.000000000
5.781250000 0.312500000 0.000000000
5.781250000 0.343750000 0.000000000
6.250000000 0.343750000 0.000000000
5.937500000 0.343750000 0.000000000
6.093750000 0.375000000 0.000000000
6.093750000 0.343750000 0.000000000
6.093750000 0.250000000 0.000000000
5.937500000 0.281250000 0.000000000
6.093750000 0.312500000 0.000000000
6.250000000 0.281250000 0.000000000
6.093750000 0.281250000 0.000000000
5.156250000 0.343750000 0.000000000
5.625000000 0.343750000 0.000000000
5.312500000 0.343750000 0.000000000
5.468750000 0.343750000 0.000000000
5.468750000 0.250000000 0.000000000
5.468750000 0.312500000 0.000000000
5.625000000 0.281250000 0.000000000
5.468750000 0.281250000 0.000000000
5.156250000 0.312500000 0.000000000
5.312500000 0.281250000 0.000000000
5.156250000 0.250000000 0.000000000
5.156250000 0.281250000 0.000000000
5.625000000 0.468750000 0.000000000
5.468750000 0.500000000 0.000000000
5.468750000 0.468750000 0.000000000
5.468750000 0.375000000 0.000000000
5.468750000 0.437500000 0.000000000
5.625000000 0.406250000 0.000000000
5.468750000 0.406250000 0.000000000
5.312500000 0.406250000 0.000000000
5.156250000 0.375000000 0.000000000
5.156250000 0.406250000 0.000000000
5.156250000 0.500000000 0.000000000
5.312500000 0.468750000 0.000000000
5.156250000 0.437500000 0.000000000
5.156250000 0.468750000 0.000000000
8.906250000 0.093750000 0.000000000
9.062500000 0.093750000 0.000000000
9.218750000 0.093750000 0.000000000
9.218750000 0.062500000 0.000000000
9.218750000 0.031250000 0.000000000
8.906250000 0.062500000 0.000000000
9.062500000 0.031250000 0.000000000
8.906250000 0.031250000 0.000000000
9.218750000 0.218750000 0.000000000
9.218750000 0.125000000 0.000000000
9.218750000 0.187500000 0.000000000
9.218750000 0.156250000 0.000000000
9.062500000 0.156250000 0.000000000
8.906250000 0.125000000 0.000000000
8.906250000 0.156250000 0.000000000
9.062500000 0.218750000 0.000000000
8.906250000 0.187500000 0.000000000
8.906250000 0.218750000 0.000000000
10.000000000 0.156250000 0.000000000
9.843750000 0.156250000 0.000000000
9.375000000 0.156250000 0.000000000
9.687500000 0.156250000 0.000000000
9.531250000 0.156250000 0.000000000
9.531250000 0.187500000 0.000000000
9.375000000 0.218750000 0.000000000
9.531250000 0.218750000 0.000000000
10.000000000 0.218750000 0.000000000
9.843750000 0.187500000 0.000000000
9.687500000 0.218750000 0.000000000
9.843750000 0.218750000 0.000000000
9.375000000 0.031250000 0.000000000
9.531250000 0.031250000 0.000000000
9.531250000 0.125000000 0.000000000
9.531250000 0.062500000 0.000000000
9.375000000 0.093750000 0.000000000
9.531250000 0.093750000 0.000000000
10.000000000 0.093750000 0.000000000
9.687500000 0.093750000 0.000000000
9.843750000 0.125000000 0.000000000
9.843750000 0.093750000 0.000000000
9.687500000 0.031250000 0.000000000
9.843750000 0.062500000 0.000000000
10.000000000 0.031250000 0.000000000
9.843750000 0.031250000 0.000000000
7.968750000 0.218750000 0.000000000
7.968750000 0.187500000 0.000000000
7.968750000 0.156250000 0.000000000
7.500000000 0.156250000 0.000000000
7.812500000 0.156250000 0.000000000
7.656250000 0.156250000 0.000000000
7.812500000 0.218750000 0.000000000
7.656250000 0.187500000 0.000000000
7.500000000 0.218750000 0.000000000
7.656250000 0.218750000 0.000000000
8.750000000 0.156250000 0.000000000
8.593750000 0.156250000 0.000000000
8.125000000 0.156250000 0.000000000
8.437500000 0.156250000 0.000000000
8.281250000 0.156250000 0.000000000
8.281250000 0.187500000 0.000000000
8.125000000 0.218750000 0.000000000
8.281250000 0.218750000 0.000000000
8.750000000 0.218750000 0.000000000
8.593750000 0.187500000 0.000000000
8.437500000 0.218750000 0.000000000
8.593750000 0.218750000 0.000000000
8.281250000 0.031250000 0.000000000
8.281250000 0.125000000 0.000000000
8.281250000 0.062500000 0.000000000
8.281250000 0.093750000 0.000000000
8.750000000 0.093750000 0.000000000
8.437500000 0.093750000 0.000000000
8.593750000 0.125000000 0.000000000
8.593750000 0.093750000 0.000000000
8.437500000 0.031250000 0.000000000
8.593750000 0.062500000 0.000000000
8.750000000 0.031250000 0.000000000
8.593750000 0.031250000 0.000000000
7.656250000 0.125000000 0.000000000
7.500000000 0.093750000 0.000000000
7.656250000 0.093750000 0.000000000
8.125000000 0.093750000 0.000000000
7.812500000 0.093750000 0.000000000
7.968750000 0.125000000 0.000000000
7.968750000 0.093750000 0.000000000
7.968750000 0.062500000 0.000000000
8.125000000 0.031250000 0.000000000
7.968750000 0.031250000 0.000000000
[...]
POINT_DATA 2145
SCALARS p float
LOOKUP_TABLE default
12.178203579
12.178203914
12.178203737
13.115731435
14.053281905
13.115728199
14.053276919
14.053270855
8.428183131
11.240690433
9.365683300
10.303184992
10.303185432
11.240691160
10.303185743
8.428183297
9.365683836
8.428183449
10.303180777
10.303181878
10.303184417
10.303182857
10.303183705
9.365682560
8.428182951
8.428182759
8.428182147
9.365681634
8.428182558
8.428182352
14.053285648
14.053287962
11.240688539
13.115731008
12.178203004
12.178201677
12.178193810
12.178199720
11.240685396
12.178197105
14.053288635
13.115726216
14.053284108
14.053287440
8.428184077
9.365684397
10.303185446
10.303185158
10.303184841
8.428184149
9.365684374
8.428184218
10.303185933
10.303186010
10.303185691
10.303185987
10.303185876
9.365684348
8.428183999
8.428183912
8.428183585
9.365684176
8.428183816
8.428183708
14.053238524
11.240689753
13.115713511
12.178198041
12.178202775
12.178199957
11.240690869
12.178201552
14.053247586
13.115722001
14.053263861
14.053256066
11.240685947
12.178188193
12.178195854
12.178190877
11.240688032
12.178193449
13.115703367
14.053228975
14.053219024
13.115692186
14.053208754
14.053198244
2.803184262
2.803184263
2.803184265
1.865684275
0.928184279
1.865684275
0.928184279
0.928184280
7.490683902
6.553184011
3.740684242
5.615684120
4.678184197
4.678184185
3.740684233
4.678184174
7.490683750
6.553183964
5.615684071
6.553183918
4.678184256
4.678184210
4.678184240
4.678184225
7.490684049
5.615684176
6.553184060
6.553184110
5.615684237
6.553184161
7.490684194
6.553184213
0.928184279
0.928184279
3.740684254
1.865684276
2.803184267
2.803184269
2.803184272
3.740684268
2.803184274
0.928184279
1.865684277
0.928184279
7.490683264
6.553183702
5.615683992
4.678184156
4.678184188
4.678184163
4.678184173
7.490683119
6.553183683
5.615684002
6.553183669
6.553183671
4.678184165
4.678184158
4.678184152
4.678184153
4.678184151
7.490683425
5.615684003
6.553183727
6.553183758
6.553183874
5.615684031
6.553183794
7.490683590
6.553183832
0.928184282
3.740684229
1.865684278
2.803184265
2.803184262
2.803184263
3.740684228
2.803184262
0.928184281
1.865684276
0.928184280
0.928184280
3.740684251
2.803184286
2.803184280
2.803184267
2.803184275
3.740684237
2.803184271
1.865684282
0.928184283
0.928184283
0.928184287
1.865684287
0.928184284
0.928184285
23.411693501
24.349693330
25.307334392
25.310948720
25.313691661
23.417170099
24.362715975
23.422621177
25.276633160
25.302434606
25.287336854
25.295871428
24.335025342
23.406182521
23.400636587
24.317692346
23.395067893
23.389506398
29.792260090
30.388327406
26.332423501
28.989170049
27.529767499
27.578015892
26.326049456
27.616171559
31.399855356
30.997839167
29.352069996
31.704284828
26.287826080
27.284168591
27.473687285
27.348365343
26.315801210
27.412351063
28.730235160
28.590810398
29.864473232
29.415203335
28.224882190
29.030713356
28.007710356
28.702678062
17.803105931
17.803081712
17.803071718
14.990771349
16.865768629
15.928297078
16.865828586
15.928321117
14.990803049
15.928346302
22.472374044
21.542849746
18.739969954
20.610599125
19.676034044
19.675763263
18.739871534
19.675555697
22.466047319
21.541204338
20.609235497
21.539716201
19.677542152
19.676357839
19.677122578
19.676724222
22.479176611
20.612320745
21.544624434
21.546502106
20.614261711
21.548457659
22.486270528
21.550466722
15.928274011
14.990738704
15.928251691
18.740175923
16.865725862
17.803073707
17.803085262
17.803103841
18.740446298
17.803126814
14.990705284
15.928229859
16.865692878
15.928208234
21.535767145
20.608636619
19.676137912
19.677718302
19.676586754
19.677123399
21.536064085
20.610220534
21.536792166
21.536490283
19.675421243
19.675369367
19.675789674
19.675408829
19.675547166
20.608112383
21.535713840
21.535958390
21.538415402
20.608363340
21.536504949
21.537334025
14.990860955
15.928459305
18.740143140
16.866020145
17.803380484
17.803146387
17.803282545
18.739918935
17.803204806
14.990833283
15.928429379
16.865911430
15.928372740
15.928400458
18.741215770
17.804145192
17.803964626
17.803498869
17.803793386
18.740567666
17.803637106
14.990884220
16.866154186
15.928489889
15.928520609
15.928604866
16.866309459
15.928550719
14.990900430
15.928579262
27.642578275
27.656242553
27.656055809
27.638156790
39.178165911
29.395680341
35.389172707
32.516021912
29.546705298
34.419253653
34.048560922
33.430916882
22.455737452
23.368631546
26.188335021
24.271658928
25.212591822
25.263708912
25.231650908
26.282318559
25.248662919
22.460405500
23.373488480
24.296719463
23.384004115
23.378635697
24.921512398
25.048082017
25.190441199
25.119168014
25.161961737
22.452746620
24.245837906
23.364040489
23.359473406
23.335091039
24.237854436
23.354213974
22.453697994
23.346964193
36.116611139
51.278212870
36.131555445
26.063978477
28.975495984
27.589094742
27.473680217
25.527606177
27.209588822
26.076877590
26.652278292
82.745051242
34.497107432
29.806329509
18.968013337
29.672068359
17.803037467
17.802950239
17.802843694
16.865283475
15.927886001
16.865403775
15.927918581
15.927950609
21.569577026
18.740936423
20.622474787
19.680339045
19.680484622
18.741188819
19.680531669
21.568946697
20.622239786
21.568038994
19.677959326
19.678663892
19.680088521
19.679253640
19.679727910
20.621930432
21.569895334
21.569866189
21.567336603
20.620491645
21.569453613
21.568622465
15.927853358
15.927821276
18.740488597
16.865141699
17.802717866
17.802573353
17.802043839
17.802411414
18.739843466
17.802233933
15.927790528
16.864986267
15.927736858
15.927762011
21.558555992
20.618233151
19.679214883
19.677972085
19.678819353
19.678401460
21.556574410
20.616280383
21.552505259
21.554549247
19.680487657
19.680360918
19.679577275
19.680160480
19.679895926
20.619974774
21.560468565
21.562285851
21.566887445
20.621358953
21.563980573
21.565524320
15.928067549
18.741186950
16.865571505
17.803208909
17.803105849
17.803190110
18.741262890
17.803156298
15.928040289
16.865499523
15.927981719
15.928011661
18.740735453
17.803151507
17.803175241
17.803214597
17.803195367
18.740997269
17.803209309
16.865623501
15.928093470
15.928118148
15.928186527
16.865661483
15.928141740
15.928164452
26.960876041
26.972743744
26.994244208
27.042008436
27.521209539
27.600051631
27.425737682
27.523577886
26.988319504
27.470031078
22.507594156
23.455539405
26.221515725
24.402151809
25.334674273
25.342249189
26.226001934
25.351741372
22.514069516
23.461132209
24.418329643
23.466738250
25.315988371
25.318257741
25.328780673
25.320900842
25.324293373
22.500657063
24.387982962
23.449976686
23.444451213
23.428060219
24.375138827
23.438962157
22.493486714
23.433502394
27.701951195
27.211264717
27.832007150
26.233767401
27.685137803
27.024814662
27.063785791
27.221921925
27.110340507
26.257922521
27.163468905
27.521035006
27.993282671
27.919926928
28.424137952
28.189291751
22.527388064
23.498034834
24.480269497
25.456332281
25.537531573
25.481715369
25.508929123
22.528212498
23.502067300
24.503154057
23.507881863
23.505414920
25.363344834
25.377208050
25.433049658
25.393429255
25.412050492
22.524389029
24.457735011
23.493473157
23.488518753
23.472329232
24.436879830
23.483284675
22.519792238
23.477863604
27.139641994
27.439221209
26.299207212
27.431500329
27.019137162
26.959133546
26.987821916
26.250961065
26.967969204
27.029182464
27.423828753
27.396104103
27.437059858
27.422396940
26.472155701
27.365399567
27.269003850
27.062383890
27.186745149
26.372668603
27.118068536
27.277725662
27.534732063
27.466654274
27.504709594
27.690644965
27.713236287
27.553107425
27.359147970
27.613355575
6.553184424
5.615684362
4.678184320
4.678184272
4.678184305
4.678184289
6.553184371
5.615684300
6.553184265
6.553184318
4.678184373
4.678184335
4.678184362
4.678184349
5.615684421
6.553184477
6.553184530
5.615684474
6.553184582
6.553184632
0.928184278
3.740684309
1.865684281
2.803184289
2.803184290
3.740684318
2.803184291
0.928184277
1.865684280
0.928184277
3.740684283
2.803184277
2.803184280
2.803184287
2.803184283
3.740684297
2.803184285
1.865684280
0.928184278
0.928184278
0.928184278
1.865684279
0.928184278
0.928184278
12.178169221
12.178170835
12.178172775
14.990601081
13.115658710
14.053134870
13.115649806
14.053125159
14.990566152
14.053116002
7.490684656
8.428184707
11.240680011
9.365684430
10.303183244
10.303183171
11.240678966
10.303183191
7.490684828
8.428184821
9.365684662
8.428184948
10.303184512
10.303184188
10.303183396
10.303183883
10.303183614
7.490684494
9.365684336
8.428184606
8.428184515
8.428184287
9.365684335
8.428184433
7.490684341
8.428184358
14.053145005
14.990636287
14.053155447
11.240681684
13.115669206
12.178174987
12.178177416
12.178185451
12.178180007
11.240683746
12.178182704
14.990671119
14.053166087
13.115680587
14.053187575
14.053176827
8.428185990
9.365686446
10.303185760
10.303188741
10.303186635
10.303187633
8.428186195
9.365687389
8.428186600
8.428186400
10.303183314
10.303183551
10.303185012
10.303183909
10.303184395
9.365685663
8.428185789
8.428185597
8.428185090
9.365685067
8.428185415
8.428185245
14.990502361
14.053087961
11.240679607
13.115639803
12.178167090
12.178167989
12.178166874
11.240678769
12.178167190
14.990532652
14.053093345
13.115643244
14.053107542
14.053099933
11.240684870
12.178177471
12.178174060
12.178167881
12.178171337
11.240681617
12.178169285
14.990477795
13.115640282
14.053083977
14.053081603
14.053086383
13.115645448
14.053081059
14.990462267
14.053082572
2.803184292
2.803184291
2.803184290
2.803184288
1.865684277
0.928184274
0.928184276
1.865684279
0.928184275
0.928184276
7.490685188
6.553184807
3.740684321
5.615684547
4.678184397
4.678184382
4.678184394
3.740684322
4.678184390
7.490685007
6.553184769
5.615684517
6.553184680
6.553184726
4.678184358
4.678184373
4.678184396
4.678184384
4.678184392
7.490685358
5.615684558
6.553184840
6.553184866
6.553184894
5.615684547
6.553184885
7.490685502
6.553184895
0.928184273
0.928184272
3.740684313
1.865684273
2.803184285
2.803184282
2.803184266
2.803184277
3.740684298
2.803184272
0.928184271
1.865684268
0.928184269
0.928184270
-17.821649862
-17.821711374
-17.821794696
-16.884491956
-15.946993139
-16.884393734
-15.946962911
-15.946935433
-21.556453559
-18.758558623
-20.627292938
-19.694154428
-19.694093757
-18.758407991
-19.694123297
-21.557272791
-20.627834806
-21.558321550
-19.695766120
-19.695309863
-19.694310039
-19.694899083
-19.694560729
-20.627433979
-21.555887520
-21.555567128
-21.555054208
-20.628600810
-21.555425767
-21.555331790
-15.947025618
-15.947059669
-18.758902688
-16.884622900
-17.821899580
-17.822024872
-17.822493150
-17.822168196
-18.759466209
-17.822326044
-15.947094401
-16.884781473
-15.947161399
-15.947128758
-21.567373010
-20.631969806
-19.695720433
-19.696135435
-19.696567781
-21.569065859
-20.633765502
-21.570760119
-19.694235660
-19.694422131
-19.695332110
-19.694673396
-19.694979917
-20.630303576
-21.565695603
-21.564051276
-21.559562305
-20.628883171
-21.562462038
-21.560954916
-15.946857231
-18.758597946
-16.884301144
-17.821604946
-17.821609699
-17.821588904
-18.758430149
-17.821589870
-15.946871978
-16.884330672
-15.946911030
-15.946889872
-18.759222747
-17.821791451
-17.821635803
-17.821731849
-18.758875914
-17.821679006
-16.884299488
-15.946845384
-15.946836077
-16.884316812
-15.946828851
-15.946823170
-27.603836050
-27.563698624
-27.511648422
-29.627788196
-28.902223149
-30.227245509
-29.269143794
-30.829898025
-31.206746042
-31.527527563
-22.496096012
-23.427829171
-26.350454928
-24.365520979
-25.325838174
-25.319035262
-26.348433790
-25.309079004
-22.490024809
-23.422756748
-24.349559484
-23.417365721
-25.327951648
-25.329695962
-25.330218552
-25.330989753
-22.501988111
-24.376463555
-23.432550718
-23.436924271
-24.383794613
-23.440980992
-22.507613894
-23.444773533
-29.708609545
-28.582493251
-29.263225723
-26.324009843
-28.495350783
-27.450156318
-27.382121317
-27.310521840
-26.282382570
-27.238171972
-27.868995074
-28.881569575
-28.119380202
-28.555560519
-22.474091595
-23.383404209
-24.269954107
-25.185285598
-24.927345690
-25.138626006
-25.061214632
-22.473929099
-23.376809386
-24.260695536
-23.354019982
-23.367824897
-25.295983617
-25.279995717
-25.216363973
-25.261486130
-25.240593163
-22.478365579
-24.299545193
-23.389049203
-23.394556391
-23.411728828
-24.327594230
-23.400194679
-22.483987500
-23.405959010
-38.846665060
-35.158166522
-26.199929037
-29.288539142
-27.619330328
-27.630389749
-27.639996406
-26.302593935
-27.642625989
-33.807062627
-34.203182010
-29.459029813
-32.328234473
-33.229842154
-26.080953455
-25.434919539
-26.592740609
-27.567494467
-27.174173618
-26.064243117
-27.447915680
-50.750612425
-28.833700217
-35.874939838
-35.889305783
-18.621085860
-29.671892779
-34.267544151
-81.819071494
-29.430337938
-6.571815668
-5.634315679
-4.696815695
-4.696815705
-4.696815715
-6.571815688
-5.634315710
-6.571815706
-4.696815655
-4.696815684
-4.696815665
-4.696815675
-5.634315646
-6.571815647
-6.571815623
-5.634315611
-6.571815596
-6.571815567
-0.009315720
-0.946815718
-3.759315696
-1.884315715
-2.821815709
-2.821815706
-3.759315686
-2.821815704
-0.009315719
-0.946815718
-1.884315714
-0.946815718
-3.759315718
-2.821815720
-2.821815711
-2.821815717
-3.759315706
-2.821815714
-0.009315720
-1.884315718
-0.946815719
-0.946815719
-1.884315720
-0.946815720
-0.009315721
-0.946815721
-12.196829512
-12.196827769
-12.196825851
-15.009359795
-13.134334828
-14.071847456
-13.134342549
-14.071854634
-15.009383612
-14.071861918
-7.509315645
-8.446815812
-11.259320489
-9.384316345
-10.321817665
-10.321817951
-11.259321997
-10.321818158
-7.509315572
-8.446815796
-9.384316425
-8.446815759
-10.321815973
-10.321817311
-10.321816452
-10.321816902
-7.509315686
-9.384316117
-8.446815810
-8.446815793
-9.384315795
-8.446815764
-7.509315706
-8.446815726
-14.071840437
-15.009339728
-14.071833600
-11.259318553
-13.134326702
-12.196823796
-12.196821638
-12.196819409
-11.259316368
-12.196817140
-15.009322640
-14.071826944
-13.134318475
-14.071820451
-8.446815060
-9.384315441
-10.321817198
-10.321815070
-10.321816614
-10.321815903
-8.446814869
-9.384314679
-8.446814446
-8.446814663
-10.321818275
-10.321818291
-10.321817656
-10.321818198
-10.321817988
-9.384315991
-8.446815232
-8.446815384
-8.446815700
-9.384316316
-8.446815513
-8.446815618
-15.009440736
-14.071890109
-11.259323012
-13.134354738
-12.196833888
-12.196831039
-12.196833273
-11.259322895
-12.196832308
-15.009411011
-14.071883480
-13.134349397
-14.071869232
-14.071876465
-11.259320337
-12.196830148
-12.196831945
-12.196834107
-12.196833178
-11.259322196
-12.196833885
-15.009470485
-13.134357810
-14.071896158
-14.071901405
-14.071909790
-13.134357801
-14.071905605
-15.009497194
-14.071908498
-2.821815703
-2.821815702
-2.821815701
-2.821815701
-0.009315718
-1.884315713
-0.946815718
-0.946815717
-1.884315713
-0.946815717
-0.009315719
-0.946815717
-7.509315323
-6.571815424
-3.759315674
-5.634315539
-4.696815623
-4.696815646
-4.696815630
-3.759315679
-4.696815637
-7.509315465
-6.571815463
-5.634315574
-6.571815534
-6.571815500
-4.696815614
-4.696815612
-4.696815617
-4.696815612
-4.696815614
-7.509315154
-5.634315508
-6.571815385
-6.571815347
-6.571815243
-5.634315486
-6.571815309
-7.509314971
-6.571815274
-0.946815718
-0.009315718
-0.946815718
-3.759315673
-1.884315715
-2.821815701
-2.821815703
-2.821815710
-2.821815704
-3.759315677
-2.821815707
-0.009315718
-0.946815719
-1.884315718
-0.946815721
-0.946815720
-12.196798032
-12.196797125
-12.196796542
-13.134276386
-14.071744052
-13.134281333
-14.071750169
-14.071756551
-8.446815882
-11.259307530
-9.384315104
-10.321812851
-10.321812663
-11.259307667
-10.321812590
-8.446815764
-9.384314815
-8.446815671
-10.321815653
-10.321814841
-10.321813159
-10.321814154
-10.321813593
-9.384315623
-8.446816024
-8.446816188
-8.446816796
-9.384316365
-8.446816374
-8.446816578
-14.071738359
-14.071733273
-11.259308288
-13.134273420
-12.196796325
-12.196796516
-12.196799931
-12.196797156
-11.259310058
-12.196798282
-14.071729003
-13.134273197
-14.071723838
-14.071725773
-8.446815562
-9.384315101
-10.321814051
-10.321815480
-10.321814505
-10.321814986
-8.446815597
-9.384315435
-8.446815683
-8.446815638
-10.321812624
-10.321812756
-10.321813636
-10.321812977
-10.321813274
-9.384314852
-8.446815537
-8.446815526
-8.446815602
-9.384314742
-8.446815531
-8.446815555
-14.071782623
-11.259310035
-13.134294737
-12.196804132
-12.196799224
-12.196802309
-11.259308555
-12.196800662
-14.071776161
-13.134287613
-14.071763070
-14.071769630
-11.259314108
-12.196814857
-12.196812586
-12.196806099
-12.196810352
-11.259311942
-12.196808182
-13.134302374
-14.071789002
-14.071795306
-14.071814087
-13.134310328
-14.071801561
-14.071807806
-2.821815740
-2.821815739
-2.821815736
-0.009315724
-1.884315729
-0.946815725
-1.884315730
-0.946815725
-0.009315724
-0.946815726
-7.509315761
-6.571815812
-3.759315750
-5.634315799
-4.696815772
-4.696815781
-3.759315759
-4.696815790
-7.509315819
-6.571815835
-5.634315830
-6.571815860
-4.696815724
-4.696815734
-4.696815763
-4.696815744
-4.696815754
-7.509315731
-5.634315768
-6.571815791
-6.571815773
-6.571815722
-5.634315739
-6.571815755
-7.509315717
-6.571815739
-0.946815724
-0.009315723
-0.946815724
-3.759315740
-1.884315726
-2.821815734
-2.821815731
-2.821815723
-2.821815728
-3.759315729
-2.821815726
-0.009315722
-0.946815723
-1.884315723
-0.946815722
-0.946815722
-7.509316200
-6.571816062
-5.634315925
-4.696815829
-4.696815829
-4.696815831
-4.696815831
-7.509316381
-6.571816099
-5.634315947
-6.571816167
-6.571816134
-4.696815798
-4.696815806
-4.696815825
-4.696815813
-4.696815820
-7.509316040
-5.634315895
-6.571816024
-6.571815988
-6.571815888
-5.634315863
-6.571815952
-7.509315912
-6.571815919
-0.009315725
-0.946815726
-3.759315771
-1.884315731
-2.821815744
-2.821815742
-2.821815744
-3.759315766
-2.821815743
-0.009315725
-0.946815726
-1.884315731
-0.946815726
-0.946815726
-3.759315768
-2.821815735
-2.821815738
-2.821815743
-2.821815741
-3.759315772
-2.821815742
-0.009315726
-1.884315729
-0.946815726
-0.946815725
-0.946815723
-1.884315726
-0.946815725
-0.009315726
-0.946815724
-23.458765799
-24.394836700
-25.315904078
-25.324791048
-25.318195632
-25.321342852
-23.455285452
-24.389278131
-23.448369713
-23.451846680
-25.324587352
-25.314976593
-25.318962137
-25.315865927
-24.402279201
-23.462361444
-23.466135647
-24.413044527
-23.470137222
-23.474397047
-26.909927856
-27.457446826
-26.172270614
-27.392729108
-26.904303410
-26.877938595
-26.166485092
-26.862060602
-26.856028343
-27.381322748
-27.293841896
-27.328086741
-26.237055784
-27.167583318
-27.100907746
-26.940597973
-27.039933330
-26.197750339
-26.986111229
-27.078664754
-27.562246101
-27.558961754
-27.688578394
-28.278447915
-27.804871938
-27.849313304
-27.386653620
-28.044604413
-17.822150113
-17.822143571
-17.822120868
-15.009273751
-16.884369370
-15.946787049
-16.884349814
-15.946775167
-15.009253065
-15.946760367
-22.523415295
-21.580413128
-18.760231526
-20.638931656
-19.699019202
-19.699321805
-18.760412554
-19.699571249
-22.528567947
-21.581850472
-20.640266623
-21.583205675
-19.697008269
-19.697447823
-19.698671887
-19.697877491
-19.698288429
-22.518234613
-20.637339516
-21.578908969
-21.577350468
-21.572444555
-20.635586861
-21.575747860
-22.512998645
-21.574109876
-15.946796377
-15.009291357
-15.946803613
-18.759945033
-16.884363479
-17.822084348
-17.822036608
-17.821854806
-17.821980454
-18.759594132
-17.821918836
-15.009307097
-15.946809299
-16.884342110
-15.946818440
-15.946814030
-21.588317420
-20.641609899
-19.699512266
-19.698202521
-19.699180858
-19.698744915
-21.588379644
-20.640764583
-21.587496889
-21.588119702
-19.699759256
-19.699877796
-19.699742531
-19.699919198
-19.699876283
-20.641727010
-21.587971036
-21.587378097
-21.584460100
-20.641237689
-21.586574011
-21.585591518
-15.009201756
-15.946669024
-18.760320258
-16.884209063
-17.821979718
-17.822138462
-17.822054301
-18.760451857
-17.822106946
-15.009228870
-15.946696629
-16.884297563
-15.946742399
-15.946721145
-18.759478915
-17.821285885
-17.821463827
-17.821882885